file 14779 1450108213                                           
version 2
run JoinManeuver-0-20151214-10:49:52-7308
attr beaconInterval 0.1
attr caccC1 0.5
attr caccOmegaN 0.2
attr caccXi 1
attr configname JoinManeuver
attr datetime 20151214-10:49:52
attr experiment JoinManeuver
attr inifile omnetpp.ini
attr iterationvars "$priority=2, $packetSize=200, $caccC1=0.5, $caccXi=1, $caccOmegaN=0.2, $beaconInterval=0.1"
attr iterationvars2 "$priority=2, $packetSize=200, $caccC1=0.5, $caccXi=1, $caccOmegaN=0.2, $beaconInterval=0.1, $repetition=0"
attr measurement "$priority=2, $packetSize=200, $caccC1=0.5, $caccXi=1, $caccOmegaN=0.2, $beaconInterval=0.1"
attr network scenario
attr packetSize 200
attr priority 2
attr processid 7308
attr repetition 0
attr replication #0
attr resultdir results
attr runnumber 0
attr seedset 0

vector 9  scenario.node[0].mobility  posx  ETV
vector 10  scenario.node[0].mobility  posy  ETV
vector 11  scenario.node[0].mobility  speed  ETV
vector 12  scenario.node[0].mobility  acceleration  ETV
vector 13  scenario.node[0].mobility  co2emission  ETV
vector 0  scenario.node[0].prot  distance  ETV
vector 1  scenario.node[0].prot  relativeSpeed  ETV
vector 2  scenario.node[0].prot  nodeId  ETV
vector 6  scenario.node[0].prot  acceleration  ETV
vector 3  scenario.node[0].prot  speed  ETV
vector 4  scenario.node[0].prot  posx  ETV
vector 5  scenario.node[0].prot  posy  ETV
vector 23  scenario.node[1].mobility  posx  ETV
vector 24  scenario.node[1].mobility  posy  ETV
vector 25  scenario.node[1].mobility  speed  ETV
vector 26  scenario.node[1].mobility  acceleration  ETV
vector 27  scenario.node[1].mobility  co2emission  ETV
vector 14  scenario.node[1].prot  distance  ETV
vector 15  scenario.node[1].prot  relativeSpeed  ETV
vector 16  scenario.node[1].prot  nodeId  ETV
vector 20  scenario.node[1].prot  acceleration  ETV
vector 17  scenario.node[1].prot  speed  ETV
vector 18  scenario.node[1].prot  posx  ETV
vector 19  scenario.node[1].prot  posy  ETV
0	1931 86 24 5830 0.2 0.8 7 -1 -1 -7 7
1	2017 79 24 5830 0.2 0.8 7 0 0 0 0
2	2096 79 24 5830 0.2 0.8 7 0 0 0 0
3	2175 176 24 5830 0.2 0.8 7 27.770211086559 27.77269742989 194.39940569933 5398.7327101632
4	2351 177 24 5830 0.2 0.8 7 34.376316024596 51.039146199119 298.9533625205 12983.53728326
5	2528 107 24 5830 0.2 0.8 7 36.55 36.55 255.85 9351.3175
6	2635 198 24 5830 0.2 0.8 7 0.0022017157050414 0.0050014670627263 0.028238916830858 0.00012042859093703
9	2833 2054 2 5831 0.01 0.8 80 29.1 50.76141922482 3183.6114871219 129976.31477492
10	4887 1366 2 5831 0.01 0.8 80 36.55 36.55 2924 106872.2
11	6253 2132 6 5831 0.02 0.8 79 27.770001525054 27.772747460027 2193.9146699421 60927.361817401
12	8385 2346 7 5831 0.03 0.8 78 0.00015247554365772 0.0050030137455082 0.27459349729995 0.0011263393775039
13	10731 2110 7 5831 0.03 0.8 78 4.4289833179429 4.4621681814969 347.24105054662 1545.858059168
14	12841 28 5829 5829 0.8 0.8 1 14.054638868352 14.054638868352 14.054638868352 197.53287371979
15	12869 30 5829 5829 0.8 0.8 1 0.089303412552614 0.089303412552614 0.089303412552614 0.0079750994935423
16	12899 14 5829 5829 0.8 0.8 1 0 0 0 0
17	12913 28 5829 5829 0.8 0.8 1 27.683344002667 27.683344002667 27.683344002667 766.36753516999
18	12941 28 5829 5829 0.8 0.8 1 32.982720262223 32.982720262223 32.982720262223 1087.859835896
19	12969 18 5829 5829 0.8 0.8 1 36.55 36.55 36.55 1335.9025
20	12987 29 5829 5829 0.8 0.8 1 -1.2690409465105 -1.2690409465105 -1.2690409465105 1.6104649239202
23	13016 397 75 5831 0.66 0.8 15 29.1 32.705886822196 461.75424124314 14235.008484161
24	13413 272 75 5831 0.66 0.8 15 36.55 36.55 548.25 20038.5375
25	13685 394 79 5831 0.67 0.8 14 27.669725954172 27.768823529412 388.25840817377 10767.484980671
26	14079 388 80 5831 0.68 0.8 13 -1.36180484952 -0.11764705882342 -9.9097575240197 9.5098067748571
27	14467 312 80 5831 0.68 0.8 13 -0.77219740641277 3.640051267495 15.619160346266 34.491079961946
